<pdos>
<nspin>1</nspin>
<norbitals> 104</norbitals>
<energy_values units="eV">
            -6.49999
            -6.49427
            -6.48855
            -6.48283
            -6.47710
            -6.47138
            -6.46566
            -6.45994
            -6.45421
            -6.44849
            -6.44277
            -6.43705
            -6.43132
            -6.42560
            -6.41988
            -6.41416
            -6.40843
            -6.40271
            -6.39699
            -6.39127
            -6.38554
            -6.37982
            -6.37410
            -6.36838
            -6.36265
            -6.35693
            -6.35121
            -6.34549
            -6.33976
            -6.33404
            -6.32832
            -6.32260
            -6.31687
            -6.31115
            -6.30543
            -6.29971
            -6.29398
            -6.28826
            -6.28254
            -6.27682
            -6.27109
            -6.26537
            -6.25965
            -6.25393
            -6.24821
            -6.24248
            -6.23676
            -6.23104
            -6.22532
            -6.21959
            -6.21387
            -6.20815
            -6.20243
            -6.19670
            -6.19098
            -6.18526
            -6.17954
            -6.17381
            -6.16809
            -6.16237
            -6.15665
            -6.15092
            -6.14520
            -6.13948
            -6.13376
            -6.12803
            -6.12231
            -6.11659
            -6.11087
            -6.10514
            -6.09942
            -6.09370
            -6.08798
            -6.08225
            -6.07653
            -6.07081
            -6.06509
            -6.05936
            -6.05364
            -6.04792
            -6.04220
            -6.03647
            -6.03075
            -6.02503
            -6.01931
            -6.01358
            -6.00786
            -6.00214
            -5.99642
            -5.99069
            -5.98497
            -5.97925
            -5.97353
            -5.96780
            -5.96208
            -5.95636
            -5.95064
            -5.94491
            -5.93919
            -5.93347
            -5.92775
            -5.92203
            -5.91630
            -5.91058
            -5.90486
            -5.89914
            -5.89341
            -5.88769
            -5.88197
            -5.87625
            -5.87052
            -5.86480
            -5.85908
            -5.85336
            -5.84763
            -5.84191
            -5.83619
            -5.83047
            -5.82474
            -5.81902
            -5.81330
            -5.80758
            -5.80185
            -5.79613
            -5.79041
            -5.78469
            -5.77896
            -5.77324
            -5.76752
            -5.76180
            -5.75607
            -5.75035
            -5.74463
            -5.73891
            -5.73318
            -5.72746
            -5.72174
            -5.71602
            -5.71029
            -5.70457
            -5.69885
            -5.69313
            -5.68740
            -5.68168
            -5.67596
            -5.67024
            -5.66451
            -5.65879
            -5.65307
            -5.64735
            -5.64162
            -5.63590
            -5.63018
            -5.62446
            -5.61874
            -5.61301
            -5.60729
            -5.60157
            -5.59585
            -5.59012
            -5.58440
            -5.57868
            -5.57296
            -5.56723
            -5.56151
            -5.55579
            -5.55007
            -5.54434
            -5.53862
            -5.53290
            -5.52718
            -5.52145
            -5.51573
            -5.51001
            -5.50429
            -5.49856
            -5.49284
            -5.48712
            -5.48140
            -5.47567
            -5.46995
            -5.46423
            -5.45851
            -5.45278
            -5.44706
            -5.44134
            -5.43562
            -5.42989
            -5.42417
            -5.41845
            -5.41273
            -5.40700
            -5.40128
            -5.39556
            -5.38984
            -5.38411
            -5.37839
            -5.37267
            -5.36695
            -5.36122
            -5.35550
            -5.34978
            -5.34406
            -5.33833
            -5.33261
            -5.32689
            -5.32117
            -5.31544
            -5.30972
            -5.30400
            -5.29828
            -5.29256
            -5.28683
            -5.28111
            -5.27539
            -5.26967
            -5.26394
            -5.25822
            -5.25250
            -5.24678
            -5.24105
            -5.23533
            -5.22961
            -5.22389
            -5.21816
            -5.21244
            -5.20672
            -5.20100
            -5.19527
            -5.18955
            -5.18383
            -5.17811
            -5.17238
            -5.16666
            -5.16094
            -5.15522
            -5.14949
            -5.14377
            -5.13805
            -5.13233
            -5.12660
            -5.12088
            -5.11516
            -5.10944
            -5.10371
            -5.09799
            -5.09227
            -5.08655
            -5.08082
            -5.07510
            -5.06938
            -5.06366
            -5.05793
            -5.05221
            -5.04649
            -5.04077
            -5.03504
            -5.02932
            -5.02360
            -5.01788
            -5.01215
            -5.00643
            -5.00071
            -4.99499
            -4.98927
            -4.98354
            -4.97782
            -4.97210
            -4.96638
            -4.96065
            -4.95493
            -4.94921
            -4.94349
            -4.93776
            -4.93204
            -4.92632
            -4.92060
            -4.91487
            -4.90915
            -4.90343
            -4.89771
            -4.89198
            -4.88626
            -4.88054
            -4.87482
            -4.86909
            -4.86337
            -4.85765
            -4.85193
            -4.84620
            -4.84048
            -4.83476
            -4.82904
            -4.82331
            -4.81759
            -4.81187
            -4.80615
            -4.80042
            -4.79470
            -4.78898
            -4.78326
            -4.77753
            -4.77181
            -4.76609
            -4.76037
            -4.75464
            -4.74892
            -4.74320
            -4.73748
            -4.73175
            -4.72603
            -4.72031
            -4.71459
            -4.70886
            -4.70314
            -4.69742
            -4.69170
            -4.68597
            -4.68025
            -4.67453
            -4.66881
            -4.66309
            -4.65736
            -4.65164
            -4.64592
            -4.64020
            -4.63447
            -4.62875
            -4.62303
            -4.61731
            -4.61158
            -4.60586
            -4.60014
            -4.59442
            -4.58869
            -4.58297
            -4.57725
            -4.57153
            -4.56580
            -4.56008
            -4.55436
            -4.54864
            -4.54291
            -4.53719
            -4.53147
            -4.52575
            -4.52002
            -4.51430
            -4.50858
            -4.50286
            -4.49713
            -4.49141
            -4.48569
            -4.47997
            -4.47424
            -4.46852
            -4.46280
            -4.45708
            -4.45135
            -4.44563
            -4.43991
            -4.43419
            -4.42846
            -4.42274
            -4.41702
            -4.41130
            -4.40557
            -4.39985
            -4.39413
            -4.38841
            -4.38268
            -4.37696
            -4.37124
            -4.36552
            -4.35980
            -4.35407
            -4.34835
            -4.34263
            -4.33691
            -4.33118
            -4.32546
            -4.31974
            -4.31402
            -4.30829
            -4.30257
            -4.29685
            -4.29113
            -4.28540
            -4.27968
            -4.27396
            -4.26824
            -4.26251
            -4.25679
            -4.25107
            -4.24535
            -4.23962
            -4.23390
            -4.22818
            -4.22246
            -4.21673
            -4.21101
            -4.20529
            -4.19957
            -4.19384
            -4.18812
            -4.18240
            -4.17668
            -4.17095
            -4.16523
            -4.15951
            -4.15379
            -4.14806
            -4.14234
            -4.13662
            -4.13090
            -4.12517
            -4.11945
            -4.11373
            -4.10801
            -4.10228
            -4.09656
            -4.09084
            -4.08512
            -4.07939
            -4.07367
            -4.06795
            -4.06223
            -4.05650
            -4.05078
            -4.04506
            -4.03934
            -4.03362
            -4.02789
            -4.02217
            -4.01645
            -4.01073
            -4.00500
            -3.99928
            -3.99356
            -3.98784
            -3.98211
            -3.97639
            -3.97067
            -3.96495
            -3.95922
            -3.95350
            -3.94778
            -3.94206
            -3.93633
            -3.93061
            -3.92489
            -3.91917
            -3.91344
            -3.90772
            -3.90200
            -3.89628
            -3.89055
            -3.88483
            -3.87911
            -3.87339
            -3.86766
            -3.86194
            -3.85622
            -3.85050
            -3.84477
            -3.83905
            -3.83333
            -3.82761
            -3.82188
            -3.81616
            -3.81044
            -3.80472
            -3.79899
            -3.79327
            -3.78755
            -3.78183
            -3.77610
            -3.77038
            -3.76466
            -3.75894
            -3.75321
            -3.74749
            -3.74177
            -3.73605
            -3.73033
            -3.72460
            -3.71888
            -3.71316
            -3.70744
            -3.70171
            -3.69599
            -3.69027
            -3.68455
            -3.67882
            -3.67310
            -3.66738
            -3.66166
            -3.65593
            -3.65021
            -3.64449
            -3.63877
            -3.63304
            -3.62732
            -3.62160
            -3.61588
            -3.61015
            -3.60443
            -3.59871
            -3.59299
            -3.58726
            -3.58154
            -3.57582
            -3.57010
            -3.56437
            -3.55865
            -3.55293
            -3.54721
            -3.54148
            -3.53576
            -3.53004
            -3.52432
            -3.51859
            -3.51287
            -3.50715
            -3.50143
            -3.49570
            -3.48998
            -3.48426
            -3.47854
            -3.47281
            -3.46709
            -3.46137
            -3.45565
            -3.44992
            -3.44420
            -3.43848
            -3.43276
            -3.42703
            -3.42131
            -3.41559
            -3.40987
            -3.40415
            -3.39842
            -3.39270
            -3.38698
            -3.38126
            -3.37553
            -3.36981
            -3.36409
            -3.35837
            -3.35264
            -3.34692
            -3.34120
            -3.33548
            -3.32975
            -3.32403
            -3.31831
            -3.31259
            -3.30686
            -3.30114
            -3.29542
            -3.28970
            -3.28397
            -3.27825
            -3.27253
            -3.26681
            -3.26108
            -3.25536
            -3.24964
            -3.24392
            -3.23819
            -3.23247
            -3.22675
            -3.22103
            -3.21530
            -3.20958
            -3.20386
            -3.19814
            -3.19241
            -3.18669
            -3.18097
            -3.17525
            -3.16952
            -3.16380
            -3.15808
            -3.15236
            -3.14663
            -3.14091
            -3.13519
            -3.12947
            -3.12374
            -3.11802
            -3.11230
            -3.10658
            -3.10086
            -3.09513
            -3.08941
            -3.08369
            -3.07797
            -3.07224
            -3.06652
            -3.06080
            -3.05508
            -3.04935
            -3.04363
            -3.03791
            -3.03219
            -3.02646
            -3.02074
            -3.01502
            -3.00930
            -3.00357
            -2.99785
            -2.99213
            -2.98641
            -2.98068
            -2.97496
            -2.96924
            -2.96352
            -2.95779
            -2.95207
            -2.94635
            -2.94063
            -2.93490
            -2.92918
            -2.92346
            -2.91774
            -2.91201
            -2.90629
            -2.90057
            -2.89485
            -2.88912
            -2.88340
            -2.87768
            -2.87196
            -2.86623
            -2.86051
            -2.85479
            -2.84907
            -2.84334
            -2.83762
            -2.83190
            -2.82618
            -2.82045
            -2.81473
            -2.80901
            -2.80329
            -2.79756
            -2.79184
            -2.78612
            -2.78040
            -2.77468
            -2.76895
            -2.76323
            -2.75751
            -2.75179
            -2.74606
            -2.74034
            -2.73462
            -2.72890
            -2.72317
            -2.71745
            -2.71173
            -2.70601
            -2.70028
            -2.69456
            -2.68884
            -2.68312
            -2.67739
            -2.67167
            -2.66595
            -2.66023
            -2.65450
            -2.64878
            -2.64306
            -2.63734
            -2.63161
            -2.62589
            -2.62017
            -2.61445
            -2.60872
            -2.60300
            -2.59728
            -2.59156
            -2.58583
            -2.58011
            -2.57439
            -2.56867
            -2.56294
            -2.55722
            -2.55150
            -2.54578
            -2.54005
            -2.53433
            -2.52861
            -2.52289
            -2.51716
            -2.51144
            -2.50572
            -2.50000
</energy_values>
<orbital 
 index="                        1" 
 atom_index="                        1" 
 species="C" 
 position="  13.492650   0.000000  18.897269" 
 n="                        2" 
 l="                        0" 
 m="                        0" 
 z="                        1" 
> 
<data>
  -0.00000
  -0.00000
  -0.00000
  -0.00000
  -0.00000
  -0.00000
  -0.00000
  -0.00000
  -0.00000
  -0.00000
  -0.00000
  -0.00000
  -0.00000
  -0.00000
  -0.00000
  -0.00000
  -0.00000
  -0.00000
  -0.00000
  -0.00000
  -0.00000
  -0.00000
  -0.00000
  -0.00000
  -0.00000
  -0.00000
  -0.00000
  -0.00000
  -0.00000
  -0.00000
  -0.00000
  -0.00000
  -0.00000
  -0.00000
  -0.00000
  -0.00000
  -0.00000
  -0.00000
  -0.00000
  -0.00000
  -0.00000
  -0.00000
  -0.00000
  -0.00000
  -0.00000
  -0.00000
  -0.00000
  -0.00000
  -0.00000
  -0.00000
  -0.00000
  -0.00000
  -0.00000
  -0.00000
  -0.00000
  -0.00000
  -0.00000
  -0.00000
  -0.00000
  -0.00000
  -0.00000
  -0.00000
  -0.00000
  -0.00000
  -0.00000
  -0.00000
  -0.00000
  -0.00000
  -0.00000
  -0.00000
  -0.00000
  -0.00000
  -0.00000
  -0.00000
  -0.00000
  -0.00000
  -0.00000
  -0.00000
  -0.00000
  -0.00000
  -0.00000
  -0.00000
  -0.00000
  -0.00000
  -0.00000
  -0.00000
  -0.00000
  -0.00000
  -0.00000
  -0.00000
  -0.00000
  -0.00000
  -0.00000
  -0.00000
  -0.00000
  -0.00000
  -0.00000
  -0.00000
  -0.00000
  -0.00000
  -0.00000
  -0.00000
  -0.00000
  -0.00000
  -0.00000
  -0.00000
  -0.00000
  -0.00000
  -0.00000
  -0.00000
  -0.00000
  -0.00000
  -0.00000
  -0.00000
  -0.00000
  -0.00000
  -0.00000
  -0.00000
  -0.00000
  -0.00000
  -0.00000
  -0.00000
  -0.00000
  -0.00000
  -0.00000
  -0.00000
  -0.00000
  -0.00000
  -0.00000
  -0.00000
  -0.00000
  -0.00000
  -0.00000
  -0.00000
  -0.00000
  -0.00000
  -0.00000
  -0.00000
  -0.00000
  -0.00000
  -0.00000
  -0.00000
  -0.00000
  -0.00000
  -0.00000
  -0.00000
  -0.00000
  -0.00000
  -0.00000
  -0.00000
  -0.00000
  -0.00000
  -0.00000
  -0.00000
  -0.00000
  -0.00000
  -0.00000
  -0.00000
  -0.00000
  -0.00000
  -0.00000
  -0.00000
  -0.00000
  -0.00000
  -0.00000
  -0.00000
  -0.00000
  -0.00000
  -0.00000
  -0.00000
  -0.00000
  -0.00000
  -0.00000
  -0.00000
  -0.00000
  -0.00000
  -0.00000
  -0.00000
  -0.00000
  -0.00000
  -0.00000
  -0.00000
  -0.00000
  -0.00000
  -0.00000
  -0.00000
  -0.00000
  -0.00000
  -0.00000
  -0.00000
  -0.00000
  -0.00000
  -0.00000
  -0.00000
  -0.00000
  -0.00000
  -0.00000
  -0.00000
  -0.00000
  -0.00000
  -0.00000
  -0.00000
  -0.00000
  -0.00000
  -0.00000
  -0.00000
  -0.00000
  -0.00000
  -0.00000
  -0.00000
  -0.00000
  -0.00000
  -0.00000
  -0.00000
  -0.00000
  -0.00000
  -0.00000
  -0.00000
  -0.00000
  -0.00000
  -0.00000
  -0.00000
  -0.00000
  -0.00000
  -0.00000
  -0.00000
  -0.00000
  -0.00000
  -0.00000
  -0.00000
  -0.00000
  -0.00000
  -0.00000
  -0.00000
  -0.00000
  -0.00000
  -0.00000
  -0.00000
  -0.00000
  -0.00000
  -0.00000
  -0.00000
  -0.00000
  -0.00000
  -0.00000
  -0.00000
  -0.00000
  -0.00000
  -0.00000
  -0.00000
  -0.00000
  -0.00000
  -0.00000
  -0.00000
  -0.00000
  -0.00000
  -0.00000
  -0.00000
  -0.00000
  -0.00000
  -0.00000
  -0.00000
  -0.00000
  -0.00000
  -0.00000
  -0.00000
  -0.00000
  -0.00000
  -0.00000
  -0.00000
  -0.00000
  -0.00000
  -0.00000
  -0.00000
  -0.00000
  -0.00000
  -0.00000
  -0.00000
  -0.00000
  -0.00000
  -0.00000
  -0.00000
  -0.00000
  -0.00000
  -0.00000
  -0.00000
  -0.00000
  -0.00000
  -0.00000
  -0.00000
  -0.00000
  -0.00000
  -0.00000
  -0.00000
  -0.00000
  -0.00000
  -0.00000
  -0.00000
  -0.00000
  -0.00000
  -0.00000
  -0.00000
  -0.00000
  -0.00000
  -0.00000
  -0.00000
  -0.00000
  -0.00000
  -0.00000
  -0.00000
  -0.00000
  -0.00000
  -0.00000
  -0.00000
  -0.00000
  -0.00000
  -0.00000
  -0.00000
  -0.00000
  -0.00000
  -0.00000
  -0.00000
  -0.00000
  -0.00000
  -0.00000
  -0.00000
  -0.00000
  -0.00000
  -0.00000
  -0.00000
  -0.00000
  -0.00000
  -0.00000
  -0.00000
  -0.00000
  -0.00000
  -0.00000
  -0.00000
  -0.00000
  -0.00000
  -0.00000
  -0.00000
  -0.00000
  -0.00000
  -0.00000
  -0.00000
  -0.00000
  -0.00000
  -0.00000
  -0.00000
  -0.00000
  -0.00000
  -0.00000
  -0.00000
  -0.00000
  -0.00000
  -0.00000
  -0.00000
  -0.00000
  -0.00000
  -0.00000
  -0.00000
  -0.00000
  -0.00000
  -0.00000
  -0.00000
  -0.00000
  -0.00000
  -0.00000
  -0.00000
  -0.00000
  -0.00000
  -0.00000
  -0.00000
  -0.00000
  -0.00000
  -0.00000
  -0.00000
  -0.00000
  -0.00000
  -0.00000
  -0.00000
  -0.00000
  -0.00000
  -0.00000
  -0.00000
  -0.00000
  -0.00000
  -0.00000
  -0.00000
  -0.00000
  -0.00000
  -0.00000
  -0.00000
  -0.00000
  -0.00000
  -0.00000
  -0.00000
  -0.00000
  -0.00000
  -0.00000
  -0.00000
  -0.00000
  -0.00000
  -0.00000
  -0.00000
  -0.00000
  -0.00000
  -0.00000
  -0.00000
  -0.00000
  -0.00000
  -0.00000
  -0.00000
  -0.00000
  -0.00000
  -0.00000
  -0.00000
  -0.00000
  -0.00000
  -0.00000
  -0.00000
  -0.00000
  -0.00000
  -0.00000
  -0.00000
  -0.00000
  -0.00000
  -0.00000
  -0.00000
  -0.00000
  -0.00000
  -0.00000
  -0.00000
  -0.00000
  -0.00000
  -0.00000
  -0.00000
  -0.00000
  -0.00000
  -0.00000
  -0.00000
  -0.00000
  -0.00000
  -0.00000
  -0.00000
  -0.00000
  -0.00000
  -0.00000
  -0.00000
  -0.00000
  -0.00000
  -0.00000
  -0.00000
  -0.00000
  -0.00000
  -0.00000
  -0.00000
  -0.00000
  -0.00000
  -0.00000
  -0.00000
  -0.00000
  -0.00000
  -0.00000
  -0.00000
  -0.00000
  -0.00000
  -0.00000
  -0.00000
  -0.00000
  -0.00000
  -0.00000
  -0.00000
  -0.00000
  -0.00000
  -0.00000
  -0.00000
  -0.00000
  -0.00000
  -0.00000
  -0.00000
  -0.00000
  -0.00000
  -0.00000
  -0.00000
  -0.00000
  -0.00000
  -0.00000
  -0.00000
  -0.00000
  -0.00000
  -0.00000
  -0.00000
  -0.00000
  -0.00000
  -0.00000
  -0.00000
  -0.00000
  -0.00000
  -0.00000
  -0.00000
  -0.00000
  -0.00000
  -0.00000
  -0.00000
  -0.00000
  -0.00000
  -0.00000
  -0.00000
  -0.00000
  -0.00000
  -0.00000
  -0.00000
  -0.00000
  -0.00000
  -0.00000
  -0.00000
  -0.00000
  -0.00000
  -0.00000
  -0.00000
  -0.00000
  -0.00000
  -0.00000
  -0.00000
  -0.00000
  -0.00000
  -0.00000
  -0.00000
  -0.00000
  -0.00000
  -0.00000
  -0.00000
  -0.00000
  -0.00000
  -0.00000
  -0.00000
  -0.00000
  -0.00000
  -0.00000
  -0.00000
  -0.00000
  -0.00000
  -0.00000
  -0.00000
  -0.00000
  -0.00000
  -0.00000
  -0.00000
  -0.00000
  -0.00000
  -0.00000
  -0.00000
  -0.00000
  -0.00000
  -0.00000
  -0.00000
  -0.00000
  -0.00000
  -0.00000
  -0.00000
  -0.00000
  -0.00000
  -0.00000
  -0.00000
  -0.00000
  -0.00000
  -0.00000
  -0.00000
  -0.00000
  -0.00000
  -0.00000
  -0.00000
  -0.00000
   0.00000
   0.00000
   0.00000
   0.00000
   0.00000
   0.00000
   0.00000
   0.00000
   0.00000
   0.00000
   0.00000
  -0.00000
  -0.00000
  -0.00000
  -0.00000
  -0.00000
  -0.00000
   0.00000
   0.00000
   0.00000
   0.00000
   0.00000
   0.00000
   0.00000
   0.00000
   0.00000
   0.00000
   0.00000
   0.00000
   0.00000
   0.00000
   0.00000
   0.00000
   0.00000
   0.00000
   0.00000
   0.00000
   0.00000
   0.00000
   0.00000
   0.00000
   0.00000
   0.00000
   0.00000
   0.00000
   0.00000
   0.00000
   0.00000
   0.00000
   0.00000
   0.00000
   0.00000
   0.00000
   0.00000
   0.00000
  -0.00000
  -0.00000
  -0.00000
  -0.00000
  -0.00000
  -0.00000
  -0.00000
  -0.00000
  -0.00000
  -0.00000
  -0.00000
  -0.00000
  -0.00000
  -0.00000
  -0.00000
  -0.00000
  -0.00000
  -0.00000
  -0.00000
  -0.00000
  -0.00000
  -0.00000
  -0.00000
  -0.00000
  -0.00000
  -0.00000
  -0.00000
  -0.00000
  -0.00000
  -0.00000
  -0.00000
  -0.00000
  -0.00000
  -0.00000
  -0.00000
  -0.00000
  -0.00000
  -0.00000
  -0.00000
  -0.00000
  -0.00000
  -0.00000
  -0.00000
  -0.00000
  -0.00000
  -0.00000
  -0.00000
  -0.00000
  -0.00000
  -0.00000
  -0.00000
  -0.00000
  -0.00000
  -0.00000
  -0.00000
  -0.00000
  -0.00000
  -0.00000
  -0.00000
  -0.00000
  -0.00000
  -0.00000
  -0.00000
  -0.00000
  -0.00000
  -0.00000
  -0.00000
  -0.00000
  -0.00000
  -0.00000
</data>
</orbital>
<orbital 
 index="                        2" 
 atom_index="                        1" 
 species="C" 
 position="  13.492650   0.000000  18.897269" 
 n="                        2" 
 l="                        0" 
 m="                        0" 
 z="                        2" 
> 
<data>
   0.00000
   0.00000
   0.00000
   0.00000
   0.00000
   0.00000
   0.00000
   0.00000
   0.00000
   0.00000
   0.00000
   0.00000
   0.00000
   0.00000
   0.00000
   0.00000
   0.00000
   0.00000
   0.00000
   0.00000
   0.00000
   0.00000
   0.00000
   0.00000
   0.00000
   0.00000
   0.00000
   0.00000
   0.00000
   0.00000
   0.00000
   0.00000
   0.00000
   0.00000
   0.00000
   0.00000
   0.00000
   0.00000
   0.00000
   0.00000
   0.00000
   0.00000
   0.00000
   0.00000
   0.00000
   0.00000
   0.00000
   0.00000
   0.00000
   0.00000
   0.00000
   0.00000
   0.00000
   0.00000
   0.00000
   0.00000
   0.00000
   0.00000
   0.00000
   0.00000
   0.00000
   0.00000
   0.00000
   0.00000
   0.00000
   0.00000
   0.00000
   0.00000
   0.00000
   0.00000
   0.00000
   0.00000
   0.00000
   0.00000
   0.00000
   0.00000
   0.00000
   0.00000
   0.00000
   0.00000
   0.00000
   0.00000
   0.00000
   0.00000
   0.00000
   0.00000
   0.00000
   0.00000
   0.00000
   0.00000
   0.00000
   0.00000
   0.00000
   0.00000
   0.00000
   0.00000
   0.00000
   0.00000
   0.00000
   0.00000
   0.00000
   0.00000
   0.00000
   0.00000
   0.00000
   0.00000
   0.00000
   0.00000
   0.00000
   0.00000
   0.00000
   0.00000
   0.00000
   0.00000
   0.00000
   0.00000
   0.00000
   0.00000
   0.00000
   0.00000
   0.00000
   0.00000
   0.00000
   0.00000
   0.00000
   0.00000
   0.00000
   0.00000
   0.00000
   0.00000
   0.00000
   0.00000
   0.00000
   0.00000
   0.00000
   0.00000
   0.00000
   0.00000
   0.00000
   0.00000
   0.00000
   0.00000
   0.00000
   0.00000
   0.00000
   0.00000
   0.00000
   0.00000
   0.00000
   0.00000
   0.00000
   0.00000
   0.00000
   0.00000
   0.00000
   0.00000
   0.00000
   0.00000
   0.00000
   0.00000
   0.00000
   0.00000
   0.00000
   0.00000
   0.00000
   0.00000
   0.00000
   0.00000
   0.00000
   0.00000
   0.00000
   0.00000
   0.00000
   0.00000
   0.00000
   0.00000
   0.00000
   0.00000
   0.00000
   0.00000
   0.00000
   0.00000
   0.00000
   0.00000
   0.00000
   0.00000
   0.00000
   0.00000
   0.00000
   0.00000
   0.00000
   0.00000
   0.00000
   0.00000
   0.00000
   0.00000
   0.00000
   0.00000
   0.00000
   0.00000
   0.00000
   0.00000
   0.00000
   0.00000
   0.00000
   0.00000
   0.00000
   0.00000
   0.00000
   0.00000
   0.00000
   0.00000
   0.00000
   0.00000
   0.00000
   0.00000
   0.00000
   0.00000
   0.00000
   0.00000
   0.00000
   0.00000
   0.00000
   0.00000
   0.00000
   0.00000
   0.00000
   0.00000
   0.00000
   0.00000
   0.00000
   0.00000
   0.00000
   0.00000
   0.00000
   0.00000
   0.00000
   0.00000
   0.00000
   0.00000
   0.00000
   0.00000
   0.00000
   0.00000
   0.00000
   0.00000
   0.00000
   0.00000
   0.00000
   0.00000
   0.00000
   0.00000
   0.00000
   0.00000
   0.00000
   0.00000
   0.00000
   0.00000
   0.00000
   0.00000
   0.00000
   0.00000
   0.00000
   0.00000
   0.00000
   0.00000
   0.00000
   0.00000
   0.00000
   0.00000
   0.00000
   0.00000
   0.00000
   0.00000
   0.00000
   0.00000
   0.00000
   0.00000
   0.00000
   0.00000
   0.00000
   0.00000
   0.00000
   0.00000
   0.00000
   0.00000
   0.00000
   0.00000
   0.00000
   0.00000
   0.00000
   0.00000
   0.00000
   0.00000
   0.00000
   0.00000
   0.00000
   0.00000
   0.00000
   0.00000
   0.00000
   0.00000
   0.00000
   0.00000
   0.00000
   0.00000
   0.00000
   0.00000
   0.00000
   0.00000
   0.00000
   0.00000
   0.00000
   0.00000
   0.00000
   0.00000
   0.00000
   0.00000
   0.00000
   0.00000
   0.00000
   0.00000
   0.00000
   0.00000
   0.00000
   0.00000
   0.00000
   0.00000
   0.00000
   0.00000
   0.00000
   0.00000
   0.00000
   0.00000
   0.00000
   0.00000
   0.00000
   0.00000
   0.00000
   0.00000
   0.00000
   0.00000
   0.00000
   0.00000
   0.00000
   0.00000
   0.00000
   0.00000
   0.00000
   0.00000
   0.00000
   0.00000
   0.00000
   0.00000
   0.00000
   0.00000
   0.00000
   0.00000
   0.00000
   0.00000
   0.00000
   0.00000
   0.00000
   0.00000
   0.00000
   0.00000
   0.00000
   0.00000
   0.00000
   0.00000
   0.00000
   0.00000
   0.00000
   0.00000
   0.00000
   0.00000
   0.00000
   0.00000
   0.00000
   0.00000
   0.00000
   0.00000
   0.00000
   0.00000
   0.00000
   0.00000
   0.00000
   0.00000
   0.00000
   0.00000
   0.00000
   0.00000
   0.00000
   0.00000
   0.00000
   0.00000
   0.00000
   0.00000
   0.00000
   0.00000
   0.00000
   0.00000
   0.00000
   0.00000
   0.00000
   0.00000
   0.00000
   0.00000
   0.00000
   0.00000
   0.00000
   0.00000
   0.00000
   0.00000
   0.00000
   0.00000
   0.00000
   0.00000
   0.00000
   0.00000
   0.00000
   0.00000
   0.00000
   0.00000
   0.00000
   0.00000
   0.00000
   0.00000
   0.00000
   0.00000
   0.00000
   0.00000
   0.00000
   0.00000
   0.00000
   0.00000
   0.00000
   0.00000
   0.00000
   0.00000
   0.00000
   0.00000
   0.00000
   0.00000
   0.00000
   0.00000
   0.00000
   0.00000
   0.00000
   0.00000
   0.00000
   0.00000
   0.00000
   0.00000
   0.00000
   0.00000
   0.00000
   0.00000
   0.00000
   0.00000
   0.00000
   0.00000
   0.00000
   0.00000
   0.00000
   0.00000
   0.00000
   0.00000
   0.00000
   0.00000
   0.00000
   0.00000
   0.00000
   0.00000
   0.00000
   0.00000
   0.00000
   0.00000
   0.00000
   0.00000
   0.00000
   0.00000
   0.00000
   0.00000
   0.00000
   0.00000
   0.00000
   0.00000
   0.00000
   0.00000
   0.00000
   0.00000
   0.00000
   0.00000
   0.00000
   0.00000
   0.00000
   0.00000
   0.00000
   0.00000
   0.00000
   0.00000
   0.00000
   0.00000
   0.00000
   0.00000
   0.00000
   0.00000
   0.00000
   0.00000
   0.00000
   0.00000
   0.00000
   0.00000
   0.00000
   0.00000
   0.00000
   0.00000
   0.00000
   0.00000
   0.00000
   0.00000
   0.00000
   0.00000
   0.00000
   0.00000
   0.00000
   0.00000
   0.00000
   0.00000
   0.00000
   0.00000
   0.00000
   0.00000
   0.00000
   0.00000
   0.00000
   0.00000
   0.00000
   0.00000
   0.00000
   0.00000
   0.00000
   0.00000
   0.00000
   0.00000
   0.00000
   0.00000
   0.00000
   0.00000
   0.00000
   0.00000
   0.00000
   0.00000
   0.00000
   0.00000
   0.00000
   0.00000
   0.00000
   0.00000
   0.00000
   0.00000
   0.00000
   0.00000
   0.00000
   0.00000
   0.00000
   0.00000
   0.00000
   0.00000
   0.00000
   0.00000
   0.00000
   0.00000
   0.00000
   0.00000
   0.00000
   0.00000
   0.00000
   0.00000
   0.00000
   0.00000
   0.00000
   0.00000
   0.00000
   0.00000
   0.00000
   0.00000
   0.00000
   0.00000
   0.00000
   0.00000
   0.00000
   0.00000
   0.00000
   0.00000
   0.00000
   0.00000
   0.00000
   0.00000
   0.00000
   0.00000
   0.00000
   0.00000
   0.00000
   0.00000
   0.00000
   0.00000
   0.00000
   0.00000
   0.00000
   0.00000
   0.00000
   0.00000
   0.00000
   0.00000
   0.00000
   0.00000
   0.00000
   0.00000
   0.00000
   0.00000
   0.00000
   0.00000
   0.00000
   0.00000
   0.00000
   0.00000